    -----------------------------------------------------------------------
          PSI4: An Open-Source Ab Initio Electronic Structure Package
                              PSI 4.0.0-beta5 Driver

    J. M. Turney, A. C. Simmonett, R. M. Parrish, E. G. Hohenstein,
    F. A. Evangelista, J. T. Fermann, B. J. Mintz, L. A. Burns, J. J. Wilke,
    M. L. Abrams, N. J. Russ, M. L. Leininger, C. L. Janssen, E. T. Seidl,
    W. D. Allen, H. F. Schaefer, R. A. King, E. F. Valeev, C. D. Sherrill,
    and T. D. Crawford, WIREs Comput. Mol. Sci., (2011) (doi: 10.1002/wcms.93)

                         Additional Contributions by
    A. E. DePrince, M. Saitow, U. Bozkaya, A. Yu. Sokolov
    -----------------------------------------------------------------------

    Process ID:   5023
    PSI4DATADIR: /usr/local/psi4/share/psi

    Using LocalCommunicator (Number of processes = 1)

    Memory level set to 256.000 MB

  ==> Input File <==

--------------------------------------------------------------------------
molecule H2 {
  
 H 0 0 0 
 H 0 0 1 
 H 0 0 2 
 H 0 0 3 
 H 0 0 4 
 H 0 1 0 
 H 0 1 1 
 H 0 1 2 
 H 0 1 3 
 H 0 1 4 
 H 0 2 0 
 H 0 2 1 
 H 0 2 2 
 H 0 2 3 
 H 0 2 4 
 H 0 3 0 
 H 0 3 1 
 H 0 3 2 
 H 0 3 3 
 H 0 3 4 
 H 0 4 0 
 H 0 4 1 
 H 0 4 2 
 H 0 4 3 
 H 0 4 4 
 H 1 0 0 
 H 1 0 1 
 H 1 0 2 
 H 1 0 3 
 H 1 0 4 
 H 1 1 0 
 H 1 1 1 
 H 1 1 2 
 H 1 1 3 
 H 1 1 4 
 H 1 2 0 
 H 1 2 1 
 H 1 2 2 
 H 1 2 3 
 H 1 2 4 
 H 1 3 0 
 H 1 3 1 
 H 1 3 2 
 H 1 3 3 
 H 1 3 4 
 H 1 4 0 
 H 1 4 1 
 H 1 4 2 
 H 1 4 3 
 H 1 4 4 
 H 2 0 0 
 H 2 0 1 
 H 2 0 2 
 H 2 0 3 
 H 2 0 4 
 H 2 1 0 
 H 2 1 1 
 H 2 1 2 
 H 2 1 3 
 H 2 1 4 
 H 2 2 0 
 H 2 2 1 
 H 2 2 2 
 H 2 2 3 
 H 2 2 4 
 H 2 3 0 
 H 2 3 1 
 H 2 3 2 
 H 2 3 3 
 H 2 3 4 
 H 2 4 0 
 H 2 4 1 
 H 2 4 2 
 H 2 4 3 
 H 2 4 4 
 H 3 0 0 
 H 3 0 1 
 H 3 0 2 
 H 3 0 3 
 H 3 0 4 
 H 3 1 0 
 H 3 1 1 
 H 3 1 2 
 H 3 1 3 
 H 3 1 4 
 H 3 2 0 
 H 3 2 1 
 H 3 2 2 
 H 3 2 3 
 H 3 2 4 
 H 3 3 0 
 H 3 3 1 
 H 3 3 2 
 H 3 3 3 
 H 3 3 4 
 H 3 4 0 
 H 3 4 1 
 H 3 4 2 
 H 3 4 3 
 H 3 4 4 
 H 4 0 0 
 H 4 0 1 
 H 4 0 2 
 H 4 0 3 
 H 4 0 4 
 H 4 1 0 
 H 4 1 1 
 H 4 1 2 
 H 4 1 3 
 H 4 1 4 
 H 4 2 0 
 H 4 2 1 
 H 4 2 2 
 H 4 2 3 
 H 4 2 4 
 H 4 3 0 
 H 4 3 1 
 H 4 3 2 
 H 4 3 3 
 H 4 3 4 
 H 4 4 0 
 H 4 4 1 
 H 4 4 2 
 H 4 4 3 
 H 4 4 4 
  
 # atomic units
 units au
 
 # Use c1 symmetry for simplicity
 symmetry c1
}
 
plugin_load("./aoints.so")
 
set globals {
    basis sto-3g
}
 
set aoints {
    # Do the two electron integrals
    do_tei true
 
    # Save to file and choose name (saved in physical notation)
    savehdf5 true
    hdf5_filename "integrals.h5"
 
    # Also print the integrals (chemical notation)
    print_integrals false
}
 
plugin("aoints.so") 
--------------------------------------------------------------------------
./aoints.so loaded.
Reading options from the AOINTS block
Calling plugin aoints.so.
    Molecular point group: c1
    Full point group: Oh

    Geometry (in Bohr), charge = 0, multiplicity = 1:

       Center              X                  Y                   Z       
    ------------   -----------------  -----------------  -----------------
           H         -2.828427124746     0.000000000000    -2.000000000000
           H         -2.828427124746     0.000000000000    -1.000000000000
           H         -2.828427124746     0.000000000000     0.000000000000
           H         -2.828427124746     0.000000000000     1.000000000000
           H         -2.828427124746     0.000000000000     2.000000000000
           H         -2.121320343560     0.707106781187    -2.000000000000
           H         -2.121320343560     0.707106781187    -1.000000000000
           H         -2.121320343560     0.707106781187     0.000000000000
           H         -2.121320343560     0.707106781187     1.000000000000
           H         -2.121320343560     0.707106781187     2.000000000000
           H         -1.414213562373     1.414213562373    -2.000000000000
           H         -1.414213562373     1.414213562373    -1.000000000000
           H         -1.414213562373     1.414213562373     0.000000000000
           H         -1.414213562373     1.414213562373     1.000000000000
           H         -1.414213562373     1.414213562373     2.000000000000
           H         -0.707106781187     2.121320343560    -2.000000000000
           H         -0.707106781187     2.121320343560    -1.000000000000
           H         -0.707106781187     2.121320343560     0.000000000000
           H         -0.707106781187     2.121320343560     1.000000000000
           H         -0.707106781187     2.121320343560     2.000000000000
           H          0.000000000000     2.828427124746    -2.000000000000
           H          0.000000000000     2.828427124746    -1.000000000000
           H          0.000000000000     2.828427124746     0.000000000000
           H          0.000000000000     2.828427124746     1.000000000000
           H          0.000000000000     2.828427124746     2.000000000000
           H         -2.121320343560    -0.707106781187    -2.000000000000
           H         -2.121320343560    -0.707106781187    -1.000000000000
           H         -2.121320343560    -0.707106781187     0.000000000000
           H         -2.121320343560    -0.707106781187     1.000000000000
           H         -2.121320343560    -0.707106781187     2.000000000000
           H         -1.414213562373     0.000000000000    -2.000000000000
           H         -1.414213562373     0.000000000000    -1.000000000000
           H         -1.414213562373     0.000000000000     0.000000000000
           H         -1.414213562373     0.000000000000     1.000000000000
           H         -1.414213562373     0.000000000000     2.000000000000
           H         -0.707106781187     0.707106781187    -2.000000000000
           H         -0.707106781187     0.707106781187    -1.000000000000
           H         -0.707106781187     0.707106781187     0.000000000000
           H         -0.707106781187     0.707106781187     1.000000000000
           H         -0.707106781187     0.707106781187     2.000000000000
           H          0.000000000000     1.414213562373    -2.000000000000
           H          0.000000000000     1.414213562373    -1.000000000000
           H          0.000000000000     1.414213562373     0.000000000000
           H          0.000000000000     1.414213562373     1.000000000000
           H          0.000000000000     1.414213562373     2.000000000000
           H          0.707106781187     2.121320343560    -2.000000000000
           H          0.707106781187     2.121320343560    -1.000000000000
           H          0.707106781187     2.121320343560     0.000000000000
           H          0.707106781187     2.121320343560     1.000000000000
           H          0.707106781187     2.121320343560     2.000000000000
           H         -1.414213562373    -1.414213562373    -2.000000000000
           H         -1.414213562373    -1.414213562373    -1.000000000000
           H         -1.414213562373    -1.414213562373     0.000000000000
           H         -1.414213562373    -1.414213562373     1.000000000000
           H         -1.414213562373    -1.414213562373     2.000000000000
           H         -0.707106781187    -0.707106781187    -2.000000000000
           H         -0.707106781187    -0.707106781187    -1.000000000000
           H         -0.707106781187    -0.707106781187     0.000000000000
           H         -0.707106781187    -0.707106781187     1.000000000000
           H         -0.707106781187    -0.707106781187     2.000000000000
           H          0.000000000000     0.000000000000    -2.000000000000
           H          0.000000000000     0.000000000000    -1.000000000000
           H          0.000000000000     0.000000000000     0.000000000000
           H          0.000000000000     0.000000000000     1.000000000000
           H          0.000000000000     0.000000000000     2.000000000000
           H          0.707106781187     0.707106781187    -2.000000000000
           H          0.707106781187     0.707106781187    -1.000000000000
           H          0.707106781187     0.707106781187     0.000000000000
           H          0.707106781187     0.707106781187     1.000000000000
           H          0.707106781187     0.707106781187     2.000000000000
           H          1.414213562373     1.414213562373    -2.000000000000
           H          1.414213562373     1.414213562373    -1.000000000000
           H          1.414213562373     1.414213562373     0.000000000000
           H          1.414213562373     1.414213562373     1.000000000000
           H          1.414213562373     1.414213562373     2.000000000000
           H         -0.707106781187    -2.121320343560    -2.000000000000
           H         -0.707106781187    -2.121320343560    -1.000000000000
           H         -0.707106781187    -2.121320343560     0.000000000000
           H         -0.707106781187    -2.121320343560     1.000000000000
           H         -0.707106781187    -2.121320343560     2.000000000000
           H          0.000000000000    -1.414213562373    -2.000000000000
           H          0.000000000000    -1.414213562373    -1.000000000000
           H          0.000000000000    -1.414213562373     0.000000000000
           H          0.000000000000    -1.414213562373     1.000000000000
           H          0.000000000000    -1.414213562373     2.000000000000
           H          0.707106781187    -0.707106781187    -2.000000000000
           H          0.707106781187    -0.707106781187    -1.000000000000
           H          0.707106781187    -0.707106781187     0.000000000000
           H          0.707106781187    -0.707106781187     1.000000000000
           H          0.707106781187    -0.707106781187     2.000000000000
           H          1.414213562373     0.000000000000    -2.000000000000
           H          1.414213562373     0.000000000000    -1.000000000000
           H          1.414213562373     0.000000000000     0.000000000000
           H          1.414213562373     0.000000000000     1.000000000000
           H          1.414213562373     0.000000000000     2.000000000000
           H          2.121320343560     0.707106781187    -2.000000000000
           H          2.121320343560     0.707106781187    -1.000000000000
           H          2.121320343560     0.707106781187     0.000000000000
           H          2.121320343560     0.707106781187     1.000000000000
           H          2.121320343560     0.707106781187     2.000000000000
           H          0.000000000000    -2.828427124746    -2.000000000000
           H          0.000000000000    -2.828427124746    -1.000000000000
           H          0.000000000000    -2.828427124746     0.000000000000
           H          0.000000000000    -2.828427124746     1.000000000000
           H          0.000000000000    -2.828427124746     2.000000000000
           H          0.707106781187    -2.121320343560    -2.000000000000
           H          0.707106781187    -2.121320343560    -1.000000000000
           H          0.707106781187    -2.121320343560     0.000000000000
           H          0.707106781187    -2.121320343560     1.000000000000
           H          0.707106781187    -2.121320343560     2.000000000000
           H          1.414213562373    -1.414213562373    -2.000000000000
           H          1.414213562373    -1.414213562373    -1.000000000000
           H          1.414213562373    -1.414213562373     0.000000000000
           H          1.414213562373    -1.414213562373     1.000000000000
           H          1.414213562373    -1.414213562373     2.000000000000
           H          2.121320343560    -0.707106781187    -2.000000000000
           H          2.121320343560    -0.707106781187    -1.000000000000
           H          2.121320343560    -0.707106781187     0.000000000000
           H          2.121320343560    -0.707106781187     1.000000000000
           H          2.121320343560    -0.707106781187     2.000000000000
           H          2.828427124746     0.000000000000    -2.000000000000
           H          2.828427124746     0.000000000000    -1.000000000000
           H          2.828427124746     0.000000000000     0.000000000000
           H          2.828427124746     0.000000000000     1.000000000000
           H          2.828427124746     0.000000000000     2.000000000000


    Nuclear repulsion energy:    2828.39702110


    Number of electrons: 125


    Number of basis functions: 125


  Two-electron Integrals


	There are 31011750 unique integrals


*** PSI4 exiting successfully. Buy a developer a beer!
