    -----------------------------------------------------------------------
          PSI4: An Open-Source Ab Initio Electronic Structure Package
                              PSI 4.0.0-beta5 Driver

    J. M. Turney, A. C. Simmonett, R. M. Parrish, E. G. Hohenstein,
    F. A. Evangelista, J. T. Fermann, B. J. Mintz, L. A. Burns, J. J. Wilke,
    M. L. Abrams, N. J. Russ, M. L. Leininger, C. L. Janssen, E. T. Seidl,
    W. D. Allen, H. F. Schaefer, R. A. King, E. F. Valeev, C. D. Sherrill,
    and T. D. Crawford, WIREs Comput. Mol. Sci., (2011) (doi: 10.1002/wcms.93)

                         Additional Contributions by
    A. E. DePrince, M. Saitow, U. Bozkaya, A. Yu. Sokolov
    -----------------------------------------------------------------------

    Process ID:  25043
    PSI4DATADIR: /usr/local/psi4/share/psi

    Using LocalCommunicator (Number of processes = 1)

    Memory level set to 256.000 MB

  ==> Input File <==

--------------------------------------------------------------------------
molecule H2 {
#O
#H 1 R
#H 1 R 2 A

H 
H 1 R
R = .9
#A = 104.5
 
# atomic units
# units au
 
# Use c1 symmetry for simplicity
symmetry c1
}
 
plugin_load("./aoints.so")
 
set globals {
basis sto-3g
}
 
set aoints {
# Do the two electron integrals
do_tei true
 
# Save to file and choose name (saved in physical notation)
savehdf5 true
hdf5_filename "integrals.h5"
 
# Also print the integrals (chemical notation)
print_integrals true
}
 
plugin("aoints.so") --------------------------------------------------------------------------
./aoints.so loaded.
Reading options from the AOINTS block
Calling plugin aoints.so.
    Molecular point group: c1
    Full point group: D_inf_h

    Geometry (in Angstrom), charge = 0, multiplicity = 1:

       Center              X                  Y                   Z       
    ------------   -----------------  -----------------  -----------------
           H          0.000000000000     0.000000000000    -0.450000000000
           H          0.000000000000     0.000000000000     0.450000000000


    Nuclear repulsion energy:       0.58797468


    Number of electrons: 2


  One-electron Integrals

  ## Overlap (Symmetry 0) ##
  Irrep: 1 Size: 2 x 2

                 1            2

    1    1.0000000    0.5571874
    2    0.5571874    1.0000000



  ## Kinetic (Symmetry 0) ##
  Irrep: 1 Size: 2 x 2

                 1            2

    1    0.7600319    0.1526838
    2    0.1526838    0.7600319



  ## Potential (Symmetry 0) ##
  Irrep: 1 Size: 2 x 2

                 1            2

    1   -1.7878350   -0.9346762
    2   -0.9346762   -1.7878350



  ## One Electron Ints (Symmetry 0) ##
  Irrep: 1 Size: 2 x 2

                 1            2

    1   -1.0278031   -0.7819923
    2   -0.7819923   -1.0278031




  Two-electron Integrals

	( 0  0 |  0  0) =    0.774605943919898
	( 1  0 |  0  0) =    0.357914418518452
	( 1  1 |  0  0) =    0.511791496390457
	( 1  0 |  1  0) =    0.203904746067603
	( 1  1 |  1  0) =    0.357914418518452
	( 1  1 |  1  1) =    0.774605943919898

	There are 6 unique integrals


*** PSI4 exiting successfully. Buy a developer a beer!
